ITEM: TIMESTEP
1191000
ITEM: NUMBER OF ATOMS
159
ITEM: BOX BOUNDS pp ff pp
0 1
-0.006 1.33253
0 1
ITEM: ATOMS id x y z vx vy vz radius c_contactatom 
642 0.457435 0.0299991 0.371707 -0.000359555 0.000250148 -0.000296593 0.03 3 
580 0.480233 0.211785 0.370144 -0.000110564 1.4373e-05 0.000126646 0.03 0 
368 0.373824 0.224572 0.353268 -2.03484e-05 0.000418089 0.00019058 0.04 6 
498 0.394007 0.0400641 0.401479 -0.000145319 0.000138827 0.000154264 0.04 4 
372 0.360562 0.111976 0.383189 -0.000387381 0.000670371 -0.00021223 0.04 5 
604 0.470529 0.0900304 0.387845 -0.000215141 0.000372594 -0.00032911 0.03 4 
398 0.424086 0.184263 0.401702 -0.000262862 0.000498848 -0.000368294 0.04 4 
610 0.401029 0.249401 0.412718 0.000237602 0.00018696 -0.000211418 0.03 5 
441 0.490475 0.040012 0.432538 9.39908e-05 0.000265017 -6.94722e-05 0.04 4 
355 0.422256 0.110944 0.433991 -0.000172579 0.000183438 -0.000161403 0.04 4 
540 0.357598 0.135897 0.448897 -0.000371066 0.000429225 0.000366412 0.03 4 
638 0.460601 0.164318 0.457971 -0.000144653 0.000637212 0.000174962 0.03 7 
677 0.371747 0.194174 0.447076 -0.000234179 0.000517724 0.00034744 0.03 5 
481 0.498314 0.219507 0.437385 0.000207617 0.000410405 -0.000201753 0.04 6 
629 0.3527 0.0349604 0.485469 -0.000320444 0.000897538 0.00166902 0.03 0 
369 0.422836 0.0399445 0.476018 7.34438e-05 0.000490696 7.68629e-05 0.04 2 
631 0.377913 0.0928074 0.485376 -0.00594362 0.0061222 -0.00163952 0.03 0 
491 0.486562 0.103543 0.480901 9.69308e-06 0.000308649 -1.3996e-05 0.04 6 
466 0.403282 0.157265 0.497419 -0.000140339 0.00071275 0.000607879 0.04 7 
564 0.427942 0.214292 0.464961 0.00568832 -0.00871311 -0.00723267 0.03 0 
353 0.365769 0.259171 0.472326 0.000146061 0.000201194 -0.000444033 0.04 7 
417 0.480551 0.0404575 0.533025 -0.00880832 -0.00227364 0.0037383 0.04 0 
676 0.428032 0.0953097 0.518281 -1.71386e-05 0.000624236 0.000189442 0.03 5 
617 0.35052 0.20165 0.509095 -0.00019053 0.00057735 0.000300356 0.03 5 
406 0.483229 0.200281 0.513554 -8.80343e-05 0.000772472 0.000358564 0.04 7 
462 0.410867 0.229328 0.531175 -0.000274442 0.000943993 0.000467486 0.04 8 
435 0.37145 0.383231 0.355825 8.45603e-05 -0.000179712 9.00659e-05 0.04 5 
411 0.449772 0.409858 0.367702 -9.39418e-05 -9.01136e-05 3.94624e-05 0.04 6 
1241 0.40972 0.521847 0.368413 -3.02449e-05 -3.8729e-05 6.90099e-06 0.03 6 
503 0.397466 0.314215 0.386595 0.000314126 -1.68802e-05 0.000143679 0.04 9 
416 0.476566 0.32416 0.392572 0.000195739 -2.22954e-05 3.55432e-05 0.04 7 
538 0.409218 0.377279 0.414447 0.000357538 0.000159323 -1.35282e-05 0.03 6 
1066 0.378336 0.459912 0.377237 -7.35758e-05 -0.000157065 1.22037e-05 0.04 7 
1179 0.449905 0.479496 0.406944 -0.000228565 -0.000147143 7.9385e-05 0.04 6 
1333 0.351405 0.524246 0.382178 2.83435e-05 -0.000206997 1.2535e-05 0.03 7 
465 0.448877 0.280229 0.453382 0.000426025 0.000260676 -0.000248996 0.04 6 
534 0.392567 0.321632 0.455954 0.000501711 0.00015266 -0.000523389 0.03 4 
658 0.448175 0.350136 0.451033 0.000245754 9.8884e-05 0.000119319 0.03 5 
614 0.490659 0.3841 0.425823 -6.87694e-05 -9.70998e-05 3.97772e-05 0.03 5 
552 0.35975 0.410106 0.422696 0.000245821 5.84561e-05 0.000130318 0.03 5 
632 0.445516 0.419767 0.453084 0.00108597 -0.000387853 0.000856234 0.03 0 
1338 0.402062 0.479795 0.457994 -0.00024208 4.61791e-05 -0.000122988 0.03 4 
1292 0.499869 0.441998 0.438374 -0.000264411 -0.000180042 -0.000114343 0.03 5 
352 0.390361 0.386801 0.481131 0.000407502 -0.000103763 -0.000126878 0.04 5 
1220 0.385881 0.522663 0.499892 -9.29168e-05 0.000434825 -0.000403967 0.03 3 
1106 0.465459 0.487781 0.486554 6.41823e-05 0.000126378 -0.000139644 0.04 4 
459 0.474126 0.278176 0.529214 0.000302885 0.000684667 0.000325242 0.04 5 
433 0.39629 0.307919 0.529031 4.94033e-05 0.000872465 -0.000363398 0.04 4 
457 0.459326 0.356224 0.519809 -2.24558e-05 0.000167612 0.000467269 0.04 6 
575 0.435981 0.424394 0.518693 -0.000410032 0.00010814 -4.58147e-05 0.03 0 
1056 0.373243 0.456048 0.517147 -3.47969e-05 0.000295272 -0.000238253 0.04 6 
1069 0.477486 0.534956 0.355975 6.08707e-05 9.31494e-05 -0.000234875 0.04 5 
1253 0.375118 0.577427 0.367806 9.21376e-06 -0.000283264 0.000141633 0.03 4 
1155 0.415926 0.752406 0.372291 -0.000333328 -0.000305387 6.27982e-05 0.04 9 
1306 0.495704 0.765565 0.357416 -4.49538e-05 -0.000662905 -0.000135334 0.03 3 
1336 0.437556 0.580741 0.390613 1.20035e-05 2.68214e-06 -8.01663e-05 0.03 4 
1190 0.463235 0.644132 0.405204 -0.000206991 -0.000205418 -8.21452e-05 0.04 10 
1293 0.350508 0.682742 0.400362 -0.000233732 -0.000390216 0.000194068 0.03 5 
1276 0.408944 0.684315 0.386893 -0.00032959 -0.000242114 4.24348e-06 0.03 5 
1115 0.479691 0.722166 0.409849 -0.000259194 -0.000321077 -0.000123306 0.04 7 
1282 0.462501 0.789993 0.410526 -8.79286e-05 -0.000401311 -0.000109458 0.03 4 
1046 0.395055 0.544723 0.43289 -1.15802e-05 5.08612e-05 -4.86142e-05 0.04 6 
1150 0.48162 0.547102 0.435401 -0.000273721 -9.30539e-05 -4.19935e-05 0.04 5 
1245 0.440259 0.600796 0.455054 -1.17094e-05 -3.8541e-05 -0.0001105 0.03 4 
1037 0.386521 0.6253 0.417514 -0.000156271 -0.000348914 0.000127231 0.04 6 
1175 0.395359 0.702792 0.453013 -0.000135306 9.34594e-05 -5.99959e-05 0.04 4 
1255 0.413772 0.770753 0.439733 -0.0003003 -0.000287783 5.92563e-05 0.03 5 
1309 0.437258 0.551722 0.489321 -4.51638e-05 0.000354391 -0.00015693 0.03 5 
1247 0.380146 0.594318 0.479897 -0.000106777 0.00011127 1.31123e-05 0.03 5 
1033 0.442133 0.65603 0.497997 -0.000241885 0.000178672 0.000112406 0.04 4 
1257 0.395196 0.758511 0.495358 -0.000184691 -0.000147277 0.000113802 0.03 4 
1141 0.467622 0.755157 0.481617 -0.000222531 -0.000229229 -0.000187293 0.04 7 
1261 0.360919 0.636626 0.517743 0.000130622 -5.23832e-05 0.000155854 0.03 4 
1065 0.355528 0.705472 0.528719 0.000138472 -0.000310616 0.000301695 0.04 6 
1095 0.400513 0.575189 0.544008 -9.51122e-06 0.000412988 -0.00011796 0.04 6 
1196 0.499142 0.685242 0.5459 -0.000127595 -0.000126256 -0.000226174 0.04 6 
1151 0.430618 0.726423 0.546427 -6.28301e-06 -0.00018104 -2.76007e-05 0.04 7 
1233 0.451789 0.808579 0.351076 -0.000184852 -0.000622298 0.000125064 0.03 4 
1327 0.488763 0.895673 0.359274 2.13606e-06 -0.000908364 2.76274e-05 0.03 4 
1770 0.368084 1.03465 0.35592 -9.61198e-05 -0.00064282 -3.26378e-05 0.04 4 
1070 0.404142 0.826797 0.398977 -0.000263601 -0.000436629 8.11232e-05 0.04 7 
1731 0.422701 0.902382 0.380978 -0.000146992 -0.000632996 3.96131e-05 0.04 6 
1758 0.362949 0.953627 0.394415 -0.000209408 -0.000617312 1.47478e-05 0.04 6 
1730 0.481072 0.950445 0.407003 -2.74517e-05 -0.000710024 -6.38592e-05 0.04 5 
1797 0.439729 1.0157 0.385757 -8.09543e-05 -0.000591234 0.000106116 0.04 7 
1979 0.367341 0.879861 0.434086 -0.00743728 0.00871783 -0.00160591 0.03 0 
2018 0.426194 0.874587 0.445064 -0.000147068 -0.000653058 4.80927e-05 0.03 5 
1149 0.492392 0.864365 0.424838 4.26552e-05 -0.000948532 9.34901e-06 0.04 4 
1913 0.415302 0.943142 0.439972 0.00022406 -0.000903675 0.000283255 0.03 0 
1896 0.395697 1.03228 0.43757 -7.45476e-05 -0.000750551 5.75577e-05 0.03 4 
2003 0.448813 1.06455 0.435007 -5.49268e-05 -0.000615539 0.000128854 0.03 4 
1100 0.385526 0.827338 0.476824 -0.000353061 -0.000419495 0.000202239 0.04 3 
1222 0.455951 0.823287 0.468625 0.0621052 -0.00314362 0.0164748 0.03 0 
1837 0.365373 0.92065 0.491704 -0.000190995 -0.00060273 6.89203e-05 0.04 5 
2059 0.465977 0.925272 0.470403 1.74631e-05 -0.000704101 -5.99752e-05 0.03 4 
1928 0.384367 0.985449 0.47331 -2.38127e-05 -0.000698278 5.35658e-05 0.03 4 
1870 0.45213 0.99965 0.463032 -6.66162e-05 -0.000669491 8.6141e-05 0.04 8 
1048 0.435782 0.805333 0.535021 -0.000164109 -0.000346027 3.82811e-06 0.04 7 
1823 0.432462 0.882396 0.514273 -4.05733e-05 -0.000586727 1.36996e-05 0.04 5 
2005 0.426264 0.951604 0.506735 -4.05998e-05 -0.000704229 3.79325e-05 0.03 6 
1914 0.437799 1.03683 0.520504 -0.000104321 -0.000745377 0.000132685 0.03 5 
2001 0.49516 1.04811 0.507055 -6.61019e-05 -0.000643352 0.000107246 0.03 4 
1746 0.386444 0.994796 0.544598 -1.64258e-05 -0.000695559 0.000102812 0.04 6 
1734 0.350698 1.11257 0.35241 7.66448e-05 -0.000662347 9.01551e-05 0.04 6 
1867 0.415078 1.1684 0.363259 1.84241e-05 -0.000449584 3.12715e-05 0.04 4 
2035 0.414632 1.08398 0.389442 0.0093821 -0.00578196 -0.000655649 0.03 0 
1892 0.48029 1.07218 0.378486 -0.000181891 -0.000401416 9.56353e-05 0.03 2 
3610 0.462938 1.23708 0.403214 0.0101772 -0.0356798 0.0130184 0.03 0 
3717 0.391483 1.26214 0.382434 0.023323 -0.0439237 -0.00782595 0.03 0 
1726 0.356743 1.08973 0.428715 -5.52532e-05 -0.000832459 3.67108e-05 0.04 7 
1976 0.3939 1.14633 0.446364 -2.02198e-05 -0.000779523 -1.89987e-05 0.03 5 
1875 0.457828 1.13259 0.421459 -2.87729e-05 -0.000440815 0.000112642 0.04 3 
1375 0.368348 1.20448 0.417124 -6.63703e-05 -0.000732692 6.52677e-05 0.04 6 
3732 0.412103 1.28193 0.437693 -7.56238e-05 0.0215181 -0.00721832 0.03 0 
4020 0.472303 1.28198 0.44471 0.00038729 -0.00937892 -0.0145662 0.03 0 
1811 0.411226 1.09222 0.487125 -7.77084e-05 -0.000753974 8.30662e-05 0.04 6 
3435 0.366802 1.18821 0.495412 -2.96596e-06 -0.000937557 -2.30243e-05 0.04 6 
1405 0.436547 1.2015 0.458739 -3.12745e-05 -0.000652286 4.28703e-06 0.04 4 
1460 0.365852 1.27237 0.490396 -9.30625e-06 -0.00100421 6.03171e-07 0.04 4 
1984 0.359876 1.0976 0.534503 -3.90298e-05 -0.000991322 2.30974e-05 0.03 5 
3527 0.463643 1.14751 0.511137 3.48803e-05 -0.000711531 -1.68336e-05 0.04 6 
1828 0.443762 1.27236 0.508412 0.000107023 -0.000918825 -3.30524e-06 0.04 2 
469 0.530093 0.0928337 0.35123 -0.000360306 0.000602515 -0.000258803 0.04 4 
657 0.537538 0.0301328 0.381625 0.00658773 0.000192074 -0.0098904 0.03 0 
403 0.508047 0.144842 0.410385 -0.000307248 0.000567525 -4.88134e-05 0.04 5 
607 0.539401 0.201452 0.383765 0.000138346 0.000267619 -0.000111883 0.03 5 
630 0.534057 0.0529282 0.489409 7.33921e-05 0.000335172 -7.802e-05 0.03 3 
389 0.547738 0.147302 0.507924 -3.35027e-05 0.000251085 8.81115e-05 0.04 5 
513 0.520069 0.267938 0.35597 2.23706e-05 -0.000243853 0.000250101 0.04 6 
546 0.517258 0.418015 0.384159 -0.000455843 -0.000390298 -0.000269968 0.03 4 
1131 0.529067 0.492853 0.400272 -0.000209361 -2.41221e-05 -0.000164817 0.04 5 
558 0.544445 0.403571 0.449844 -0.000219015 -0.000318023 -0.000218745 0.03 5 
502 0.51561 0.329758 0.462134 -1.56523e-05 3.20316e-05 0.000152593 0.04 3 
1275 0.530312 0.508974 0.46831 -0.000498929 -0.000311698 -1.8559e-05 0.03 4 
380 0.50448 0.420428 0.504733 -7.22873e-05 -0.000238482 -4.66418e-05 0.04 7 
1057 0.529365 0.673168 0.370832 -4.94488e-05 -0.00025911 -8.74144e-05 0.04 6 
1058 0.5238 0.595085 0.387387 -0.000236913 -8.08309e-05 -0.000202381 0.04 6 
1187 0.531542 0.78234 0.418839 0.000240688 -0.000681044 -0.000195036 0.04 5 
1074 0.510114 0.624944 0.467047 -0.000394965 -0.000397711 -0.000106913 0.04 5 
1224 0.500162 0.693993 0.47204 -3.25232e-05 -0.000326032 -0.000332224 0.03 3 
1109 0.505166 0.558346 0.51095 -0.000349839 -0.000187661 8.52005e-06 0.04 7 
1169 0.541917 0.740879 0.507598 -6.44648e-05 -0.000265016 -0.000321022 0.04 7 
1188 0.517485 0.832006 0.356145 0.000135597 -0.000964043 4.61508e-05 0.04 7 
1991 0.509065 1.01305 0.377315 -9.03014e-05 -0.000592713 -3.95706e-05 0.03 5 
1925 0.543519 0.981049 0.414399 -0.000111601 -0.000619628 -0.000116089 0.03 4 
1750 0.541549 0.921685 0.451208 5.33558e-05 -0.000744241 -9.29113e-05 0.04 7 
1756 0.515229 1.04315 0.440184 -7.52685e-05 -0.000557127 2.9275e-05 0.04 6 
1748 0.523022 0.98473 0.496829 -0.000125617 -0.000722251 4.14878e-06 0.04 5 
1114 0.511727 0.814853 0.511339 -7.323e-05 -0.000180904 -0.000344879 0.04 5 
1809 0.509073 0.909753 0.523243 8.47652e-05 -0.000601108 -3.16597e-05 0.04 4 
1516 0.507172 1.27182 0.354659 -0.000351044 -0.00217832 -0.000448921 0.04 0 
1707 0.518541 1.11828 0.379078 -4.14578e-05 -0.000410585 2.48508e-05 0.03 5 
3594 0.511421 1.18591 0.395403 -4.13955e-05 -0.00035249 2.66718e-05 0.04 4 
1996 0.52231 1.11627 0.443589 0.000141824 0.000105136 -0.000156147 0.03 0 
4035 0.500232 1.22877 0.449509 -2.68924e-05 -0.000527936 5.71939e-05 0.03 5 
3540 0.549141 1.27243 0.425362 -4.82387e-06 -0.000744916 2.34782e-05 0.04 3 
1899 0.511369 1.17129 0.465154 8.86072e-05 -4.75626e-05 2.24204e-05 0.03 0 
1466 0.501191 1.21765 0.518524 0.000158154 -0.000747942 -6.66156e-05 0.04 4 
1813 0.520068 1.10176 0.544472 2.37348e-05 -0.000618775 7.21351e-05 0.04 5 
